<?xml version="1.0"?>
<VTKFile type="UnstructuredGrid" version="2.2">
  <UnstructuredGrid>
    <Piece NumberOfPoints="81" NumberOfCells="64">
      <Points>
        <DataArray type="Float64" NumberOfComponents="3" format="ascii">6.938893903907228e-18 6.938893903907228e-18 0 6.938893903907228e-18 0.125 0 0.125 6.938893903907228e-18 0 0.125 0.125 0 6.938893903907228e-18 0.25 0 0.125 0.25 0 0.25 6.938893903907228e-18 0 0.25 0.125 0 6.938893903907228e-18 0.375 0 0.125 0.375 0 0.25 0.25 0 0.375 6.938893903907228e-18 0 0.375 0.125 0 6.938893903907228e-18 0.5 0 0.125 0.5 0 0.25 0.375 0 0.375 0.25 0 0.5 6.938893903907228e-18 0 0.5 0.125 0 6.938893903907228e-18 0.625 0 0.125 0.625 0 0.25 0.5 0 0.375 0.375 0 0.5 0.25 0 0.625 6.938893903907228e-18 0 0.625 0.125 0 6.938893903907228e-18 0.75 0 0.125 0.75 0 0.25 0.625 0 0.375 0.5 0 0.5 0.375 0 0.625 0.25 0 0.75 6.938893903907228e-18 0 0.75 0.125 0 6.938893903907228e-18 0.875 0 0.125 0.875 0 0.25 0.75 0 0.375 0.625 0 0.5 0.5 0 0.625 0.375 0 0.75 0.25 0 0.875 6.938893903907228e-18 0 0.875 0.125 0 -6.938893903907228e-18 1 0 0.125 1 0 0.25 0.875 0 0.375 0.75 0 0.5 0.625 0 0.625 0.5 0 0.75 0.375 0 0.875 0.25 0 1 -6.938893903907228e-18 0 1 0.125 0 0.25 1 0 0.375 0.875 0 0.5 0.75 0 0.625 0.625 0 0.75 0.5 0 0.875 0.375 0 1 0.25 0 0.375 1 0 0.5 0.875 0 0.625 0.75 0 0.75 0.625 0 0.875 0.5 0 1 0.375 0 0.4999999999999999 1 0 0.625 0.875 0 0.75 0.75 0 0.875 0.625 0 1 0.4999999999999999 0 0.625 1 0 0.75 0.875 0 0.875 0.75 0 1 0.625 0 0.75 1 0 0.875 0.875 0 1 0.75 0 0.875 1 0 1 0.875 0 1 1 0 </DataArray>
      </Points>
      <Cells>
        <DataArray type="Int32" Name="connectivity" format="ascii">0 1 3 2 1 4 5 3 2 3 7 6 4 8 9 5 3 5 10 7 6 7 12 11 8 13 14 9 5 9 15 10 7 10 16 12 11 12 18 17 13 19 20 14 9 14 21 15 10 15 22 16 12 16 23 18 17 18 25 24 19 26 27 20 14 20 28 21 15 21 29 22 16 22 30 23 18 23 31 25 24 25 33 32 26 34 35 27 20 27 36 28 21 28 37 29 22 29 38 30 23 30 39 31 25 31 40 33 32 33 42 41 34 43 44 35 27 35 45 36 28 36 46 37 29 37 47 38 30 38 48 39 31 39 49 40 33 40 50 42 41 42 52 51 35 44 53 45 36 45 54 46 37 46 55 47 38 47 56 48 39 48 57 49 40 49 58 50 42 50 59 52 45 53 60 54 46 54 61 55 47 55 62 56 48 56 63 57 49 57 64 58 50 58 65 59 54 60 66 61 55 61 67 62 56 62 68 63 57 63 69 64 58 64 70 65 61 66 71 67 62 67 72 68 63 68 73 69 64 69 74 70 67 71 75 72 68 72 76 73 69 73 77 74 72 75 78 76 73 76 79 77 76 78 80 79 </DataArray>
        <DataArray type="Int32" Name="offsets" format="ascii">4 8 12 16 20 24 28 32 36 40 44 48 52 56 60 64 68 72 76 80 84 88 92 96 100 104 108 112 116 120 124 128 132 136 140 144 148 152 156 160 164 168 172 176 180 184 188 192 196 200 204 208 212 216 220 224 228 232 236 240 244 248 252 256 </DataArray>
        <DataArray type="Int8" Name="types" format="ascii">70 70 70 70 70 70 70 70 70 70 70 70 70 70 70 70 70 70 70 70 70 70 70 70 70 70 70 70 70 70 70 70 70 70 70 70 70 70 70 70 70 70 70 70 70 70 70 70 70 70 70 70 70 70 70 70 70 70 70 70 70 70 70 70 </DataArray>
      </Cells>
      <CellData>
        <DataArray type="UInt8" Name="vtkGhostType" format="ascii" RangeMin="0" RangeMax="1">0 0 0 0 0 0 0 0 0 0 0 0 0 0 0 0 0 0 0 0 0 0 0 0 0 0 0 0 0 0 0 0 0 0 0 0 0 0 0 0 0 0 0 0 0 0 0 0 0 0 0 0 0 0 0 0 0 0 0 0 0 0 0 0 </DataArray>
        <DataArray type="Int64" IdType="1" Name="vtkOriginalCellIds" format="ascii" RangeMin="0" RangeMax="63">0 1 2 3 4 5 6 7 8 9 10 11 12 13 14 15 16 17 18 19 20 21 22 23 24 25 26 27 28 29 30 31 32 33 34 35 36 37 38 39 40 41 42 43 44 45 46 47 48 49 50 51 52 53 54 55 56 57 58 59 60 61 62 63 </DataArray>
      </CellData>
      <PointData Scalars="f">
        <DataArray type="Int64" IdType="1" Name="vtkOriginalPointIds" format="ascii" RangeMin="0" RangeMax="80">0 1 2 3 4 5 6 7 8 9 10 11 12 13 14 15 16 17 18 19 20 21 22 23 24 25 26 27 28 29 30 31 32 33 34 35 36 37 38 39 40 41 42 43 44 45 46 47 48 49 50 51 52 53 54 55 56 57 58 59 60 61 62 63 64 65 66 67 68 69 70 71 72 73 74 75 76 77 78 79 80 </DataArray>
        <DataArray type="UInt8" Name="vtkGhostType" format="ascii" RangeMin="0" RangeMax="0">0 0 0 0 0 0 0 0 0 0 0 0 0 0 0 0 0 0 0 0 0 0 0 0 0 0 0 0 0 0 0 0 0 0 0 0 0 0 0 0 0 0 0 0 0 0 0 0 0 0 0 0 0 0 0 0 0 0 0 0 0 0 0 0 0 0 0 0 0 0 0 0 0 0 0 0 0 0 0 0 0 </DataArray>
        <DataArray type="Float64" Name="f" format="ascii">1 1.03125 1.015625 1.046875 1.125 1.140624999999999 1.0625 1.093749999999999 1.28125 1.296874999999999 1.187499999999998 1.140625 1.171874999999999 1.5 1.515625 1.343749999999998 1.265624999999998 1.25 1.281249999999999 1.78125 1.796875 1.562499999999998 1.421874999999998 1.374999999999998 1.390625 1.421874999999999 2.125 2.140625 1.843749999999999 1.640624999999998 1.531249999999997 1.515624999999998 1.5625 1.593749999999999 2.53125 2.546875 2.187499999999999 1.921874999999998 1.749999999999997 1.671874999999998 1.687499999999998 1.765625 1.796874999999999 3 3.015625 2.59375 2.265624999999999 2.031249999999996 1.890624999999997 1.843749999999998 1.890624999999999 2 2.03125 3.0625 2.671875 2.374999999999997 2.171874999999998 2.062499999999997 2.046874999999997 2.125 3.140625 2.781249999999998 2.515624999999997 2.343749999999997 2.265624999999999 2.28125 3.25 2.921874999999999 2.687499999999999 2.546874999999999 2.5 3.390625 3.09375 2.890625 2.78125 3.5625 3.296875 3.125 3.765625 3.53125 4 </DataArray>
      </PointData>
    </Piece>
  </UnstructuredGrid>
</VTKFile>
